                         Program Version 3.0.3 - RELEASE   -
|  1> ! HF STO-3G
|  2>
|  3> *xyzfile 0 1 water.xyz
|  4>
|  5>                          ****END OF INPUT****

CARTESIAN COORDINATES (ANGSTROEM)
---------------------------------
  O     -2.710570    1.934150    0.000000
  H     -1.740570    1.934150    0.000000
  H     -3.033900    2.587100    0.640320

 Total Charge           Charge          ....    0
 Multiplicity           Mult            ....    1
 Number of Electrons    NEL             ....   10
 Basis Dimension        Dim             ....    7

ORBITAL ENERGIES
----------------

  NO   OCC          E(Eh)            E(eV)
   0   2.0000     -20.235745      -550.6426
   1   2.0000      -1.255891       -34.1745
   2   2.0000      -0.618564       -16.8320
   3   2.0000      -0.439320       -11.9545
   4   2.0000      -0.386334       -10.5127
   5   0.0000       0.582981        15.8637
   6   0.0000       0.742243        20.1975

MULLIKEN ATOMIC CHARGES
-----------------------
   0 O :   -0.363310
   1 H :    0.181655
   2 H :    0.181655
Sum of atomic charges:   -0.0000000

LOEWDIN ATOMIC CHARGES
----------------------
   0 O :   -0.253257
   1 H :    0.126628
   2 H :    0.126629

  Mayer bond orders larger than 0.1
B(  0-O ,  1-H ) :   0.9511 B(  0-O ,  2-H ) :   0.9511

FINAL SINGLE POINT ENERGY       -74.961641731198

DIPOLE MOMENT
-------------
                                X             Y             Z
Electronic contribution:     -0.15737      -0.15889      -0.15582
Nuclear contribution   :      0.53826       0.54349       0.53298
                        -----------------------------------------
Total Dipole Moment    :      0.38090       0.38460       0.37716
                        -----------------------------------------
Magnitude (a.u.)       :      0.65973
Magnitude (Debye)      :      1.67691

                             ****ORCA TERMINATED NORMALLY****
TOTAL RUN TIME: 0 days 0 hours 0 minutes 0 seconds 250 msec
